100
Energy = -2341.417153599
O    15.4261786   10.8476846    2.9744475 
H    15.3466943    9.8926604    3.2160613 
H    14.5381618   11.1147598    2.6952088 
Eu   13.0162585    7.7006262    3.7117462 
N    12.1268924    9.9651387    3.2047150 
N    12.7661951    8.5848545    1.5167830 
N    12.4173358   10.8866086    1.0096598 
N    14.3208015    7.9965732    5.7346439 
N    15.4770390    8.0801078    3.7906248 
N    16.7132974    8.1687487    5.8280317 
N    10.8701911    6.7401949    4.3627991 
N    12.5347732    5.3377845    3.7841496 
N    10.4456033    4.3962427    4.5168417 
C    12.0034155   11.2641264    3.8411809 
H    12.3281799   12.0594853    3.1403987 
C    10.5565136   11.5532870    4.2524761 
H     9.8535381   11.4664737    3.4077572 
H    10.4647057   12.5702636    4.6741211 
H    10.2301344   10.8344684    5.0234608 
C    12.8979492   11.3570127    5.0773524 
H    12.5998831   10.6023724    5.8256966 
H    12.8085934   12.3521970    5.5486696 
H    13.9548600   11.1935332    4.8126897 
C    12.4545635    8.1074012    0.1831902 
H    12.1485819    8.9564540   -0.4572407 
C    11.2617997    7.1480416    0.2366102 
C    13.6558996    7.4357665   -0.4756841 
H    14.5068202    8.1319705   -0.5600323 
H    13.4031546    7.0735536   -1.4879981 
H    13.9912822    6.5668485    0.1195608 
C    12.4061792    9.8141280    1.9121502 
C    11.3005376   11.7750568    0.8347449 
H    10.4905268   11.5103135    1.5268976 
H    10.8997188   11.6948500   -0.1979740 
H    11.5732245   12.8362466    1.0055680 
C    13.4737330   11.0223075    0.0397270 
H    13.8367070   12.0690123    0.0315663 
H    13.1561934   10.7721267   -0.9946212 
H    14.3194757   10.3769021    0.3175698 
C    13.9912640    8.3731624    7.1007158 
C    13.8479315    7.1647057    8.0305652 
H    14.8215860    6.7119670    8.2811184 
C    16.6081778    7.5250591    3.0500555 
H    17.4924579    7.4666309    3.7105064 
C    16.9853072    8.3817670    1.8451894 
H    16.1263264    8.4780337    1.1576986 
H    17.8194662    7.9164931    1.2903548 
H    17.2844298    9.3999186    2.1389503 
C    16.3067510    6.0934137    2.6050391 
H    16.0458404    5.4544326    3.4658738 
H    17.1778297    5.6417906    2.0963087 
H    15.4621497    6.0765446    1.8919011 
C    15.5017715    8.0758909    5.1388117 
C    17.1219700    7.1964930    6.8004109 
H    18.0818611    6.7287771    6.4951347 
H    16.3691661    6.3985270    6.8752503 
C    17.6843753    9.1704078    5.4741212 
H    17.2573275    9.8605790    4.7301269 
H    18.6192072    8.7369855    5.0610346 
H    17.9593288    9.7652023    6.3694292 
C     9.7067576    7.1080133    5.1394994 
C     8.7302281    7.9172203    4.2863973 
C    10.1204635    7.8941679    6.3848754 
C    13.0737464    4.1840720    3.0795583 
C    12.0788695    3.3576304    2.2584695 
C    11.2784428    5.4832224    4.2183107 
C    10.8492117    3.3689943    5.4330841 
C     9.1249995    4.2758206    3.9674605 
H     9.0265785    3.3309210    3.3916289 
H     8.9269071    5.1097502    3.2782422 
H     8.3347229    4.2732773    4.7474961 
H    10.1066059    3.2722492    6.2525207 
H    11.8177838    3.6289565    5.8848412 
H    10.9436938    2.3701042    4.9557121 
H     8.3728619    7.3277975    3.4241440 
H     9.2317605    8.8169376    3.8899083 
H     7.8504817    8.2346321    4.8748205 
H    10.7981158    7.2956789    7.0179131 
H     9.2409237    8.1746939    6.9923643 
H    10.6458248    8.8245124    6.1027427 
C    13.9502479    3.2872065    3.9609834 
H    11.4385075    4.0096406    1.6393319 
H    11.4236599    2.7289663    2.8820140 
H    12.6336812    2.6864102    1.5786468 
H    14.5417201    2.5926959    3.3375326 
H    13.3535944    2.6798485    4.6610973 
H    14.6510071    3.8993564    4.5536216 
H    17.2734211    7.6285256    7.8119539 
C    14.8388628    9.4823648    7.7285560 
H    13.2231749    6.3879107    7.5562506 
H    13.3654054    7.4642956    8.9780807 
H    14.9589335   10.3272858    7.0299645 
H    15.8413041    9.1422628    8.0307745 
H    14.3297874    9.8596570    8.6335061 
H    12.9699536    8.7937972    7.0273450 
H    11.5012498    6.2657725    0.8586251 
H    10.9860348    6.7913373   -0.7727956 
H    10.3823447    7.6424456    0.6836147 
H     9.1855767    6.2014420    5.4997208 
H    13.7698967    4.6164576    2.3339349 
