82
 Energy =   -1981.7455584680
Eu    9.1455914   10.6544852    7.8917680  0.00   -0.0415409    0.0262194    0.0218046
 N    8.7740816   12.9538809    7.2296450  0.00   -0.0202464    0.0758014    0.0266664
 N    8.5164746   11.3758522    5.6471371  0.00    0.0203090    0.0075191   -0.0417587
 N   10.2437440   10.8047910   10.0423218  0.00   -0.0342410    0.0258346    0.0480992
 N   11.5302822   10.6393770    8.2125220  0.00    0.0510358   -0.0302161   -0.0360780
 N    7.0865829    9.6486640    8.6745122  0.00   -0.0235680    0.0047009    0.0523318
 N    8.6751636    8.2903782    7.8599665  0.00    0.0295221   -0.0730907   -0.0337853
 C    8.8636743   14.3075489    7.7304904  0.00   -0.0066614    0.0031817   -0.0156813
 H    9.0205180   15.0230772    6.8995331  0.00    0.0022388    0.0043636   -0.0004923
 C    7.5796249   14.7267544    8.4502087  0.00    0.0014551    0.0019271   -0.0005841
 H    6.7014024   14.6271492    7.7884628  0.00    0.0007541    0.0005418   -0.0025622
 H    7.6358787   15.7756257    8.7939516  0.00   -0.0010077    0.0008809    0.0000084
 H    7.4079965   14.0863581    9.3337463  0.00   -0.0010220   -0.0014475   -0.0002117
 C   10.0703046   14.4365995    8.6579883  0.00   -0.0012736   -0.0007175   -0.0004329
 H    9.9851423   13.7287206    9.5021834  0.00   -0.0013004    0.0007237    0.0015784
 H   10.1533759   15.4597687    9.0664529  0.00    0.0005615    0.0005716    0.0000197
 H   11.0028380   14.1986512    8.1183990  0.00    0.0010615   -0.0001320   -0.0003198
 C    8.1451673   10.8336870    4.3609100  0.00   -0.0095284   -0.0015414    0.0044706
 H    7.5606513   11.5704128    3.7759321  0.00   -0.0021543   -0.0006072    0.0003527
 C    7.2420865    9.6175068    4.5567714  0.00   -0.0008077   -0.0013281   -0.0005834
 C    9.3779984   10.4762872    3.5292169  0.00    0.0019143    0.0008930    0.0032766
 H   10.0218937   11.3610440    3.3805725  0.00   -0.0001639    0.0005980   -0.0000259
 H    9.0933637   10.0846683    2.5357764  0.00   -0.0004223    0.0000675   -0.0010102
 H    9.9792008    9.7043508    4.0424455  0.00    0.0002158    0.0005268   -0.0000690
 C    8.4879437   12.6681545    5.9608615  0.00    0.0083544   -0.0009530    0.0124785
 C    9.8577712   10.7295902   11.4384401  0.00   -0.0002970   -0.0168525    0.0118791
 C   10.1641985    9.3822968   12.1020960  0.00    0.0049671    0.0022169    0.0012449
 H   11.2452416    9.2079151   12.2386183  0.00   -0.0004424    0.0015557    0.0014341
 C   12.7749002   10.6296278    7.4788113  0.00    0.0100755   -0.0134715    0.0073383
 H   13.5738121   10.1256222    8.0598418  0.00    0.0024527    0.0010584   -0.0010950
 C   13.2520785   12.0519244    7.1696286  0.00   -0.0030842    0.0023718    0.0023481
 H   12.4981867   12.5769831    6.5557497  0.00   -0.0002514    0.0005398    0.0006738
 H   14.2084867   12.0453397    6.6156160  0.00   -0.0007626   -0.0006990    0.0024520
 H   13.3941290   12.6378850    8.0945252  0.00    0.0014547   -0.0002862   -0.0004527
 C   12.5984320    9.8371322    6.1865585  0.00   -0.0016527   -0.0009378    0.0013935
 H   12.2894614    8.7991187    6.4024884  0.00   -0.0002044    0.0010563   -0.0002266
 H   13.5364564    9.8056180    5.6045705  0.00   -0.0008737   -0.0016023    0.0014320
 H   11.8204419   10.3019603    5.5534270  0.00   -0.0007339   -0.0017734    0.0005781
 C   11.4687382   10.6804570    9.5443674  0.00    0.0136862   -0.0057475   -0.0366816
 C    5.7680862    9.9702773    9.1696907  0.00    0.0021841   -0.0017301   -0.0003929
 C    4.7808986   10.1855953    8.0185609  0.00   -0.0023692    0.0003731   -0.0002834
 C    5.8377922   11.2117490   10.0533187  0.00   -0.0028344    0.0001103    0.0005141
 C    9.4258701    7.0742668    7.6136975  0.00   -0.0174496   -0.0065158   -0.0062234
 C    8.8382710    6.1679790    6.5250567  0.00    0.0046644   -0.0051751    0.0016294
 C    7.4828652    8.3990922    8.4396338  0.00    0.0296664   -0.0018798   -0.0234563
 H    4.7084699    9.2870507    7.3809129  0.00   -0.0004186    0.0007612   -0.0002859
 H    5.1208969   11.0203634    7.3797060  0.00    0.0003869    0.0013478   -0.0002187
 H    3.7687385   10.4230713    8.3934870  0.00   -0.0016961    0.0003870   -0.0001999
 H    6.5125199   11.0441586   10.9106172  0.00    0.0004527    0.0005153    0.0005380
 H    4.8411563   11.4809147   10.4454458  0.00   -0.0015018    0.0008743    0.0000007
 H    6.2226262   12.0732130    9.4781443  0.00    0.0003083    0.0005108   -0.0011823
 C    9.7989691    6.2957674    8.8802816  0.00   -0.0007637   -0.0005787   -0.0018871
 H    8.6280329    6.7508315    5.6121858  0.00    0.0003323    0.0001575    0.0012947
 H    7.8987167    5.6778976    6.8328679  0.00   -0.0004682    0.0000231   -0.0016983
 H    9.5562634    5.3704128    6.2627230  0.00   -0.0009670   -0.0018141   -0.0016664
 H   10.5198685    5.4931486    8.6424785  0.00    0.0006268   -0.0008432    0.0017286
 H    8.9267894    5.8244754    9.3648327  0.00   -0.0005478   -0.0009690    0.0018323
 H   10.2694494    6.9711157    9.6157192  0.00   -0.0001598    0.0004805    0.0015466
 C   10.3092292   11.9216877   12.2909630  0.00    0.0025382    0.0025987   -0.0043189
 H    9.7651760    8.5582696   11.4856330  0.00    0.0001628   -0.0006254    0.0002566
 H    9.6904866    9.3242256   13.0985358  0.00   -0.0009464    0.0011232    0.0000523
 H   10.0394361   12.8693320   11.7943242  0.00   -0.0007677    0.0013083    0.0000519
 H   11.3974177   11.9370777   12.4730236  0.00   -0.0001427    0.0003739   -0.0006545
 H    9.8108649   11.8978996   13.2765587  0.00   -0.0009345   -0.0012620   -0.0026904
 H    8.7540848   10.7941781   11.4172208  0.00    0.0021646    0.0015186   -0.0010487
 H    7.7569764    8.8476672    5.1586636  0.00    0.0010020   -0.0019682   -0.0006525
 H    6.9539590    9.1724421    3.5871969  0.00    0.0005325   -0.0001546    0.0006100
 H    6.3228934    9.9011571    5.0976538  0.00    0.0001869    0.0001279   -0.0002606
 H    5.3722001    9.1490640    9.8009052  0.00   -0.0015248    0.0014288   -0.0002668
 H   10.3894845    7.4294872    7.2009642  0.00   -0.0014318   -0.0032855    0.0017982
 C    6.6107011    7.2243784    8.8332726  0.00   -0.0010474    0.0028487   -0.0001698
 H    7.0450077    6.2616702    8.5437178  0.00   -0.0005411    0.0023224   -0.0006867
 H    5.6179803    7.3065546    8.3597062  0.00   -0.0000253    0.0006687    0.0004589
 H    6.4524889    7.2171458    9.9258481  0.00   -0.0007698   -0.0012538    0.0005898
 C    8.1825032   13.7677005    4.9640413  0.00   -0.0018299   -0.0029233    0.0002291
 H    7.8579291   13.3799588    3.9893033  0.00    0.0012665   -0.0016650    0.0000171
 H    9.0833725   14.3833565    4.7956126  0.00    0.0009952   -0.0017406    0.0003086
 H    7.3958113   14.4376379    5.3483796  0.00   -0.0001952   -0.0005458   -0.0012032
 C   12.7312810   10.5653457   10.3736195  0.00   -0.0013850    0.0028159    0.0004546
 H   13.2070074    9.5830389   10.2059931  0.00   -0.0018782   -0.0004249    0.0000160
 H   12.5436099   10.6761319   11.4467438  0.00   -0.0003948    0.0004352    0.0010866
 H   13.4605124   11.3359121   10.0727844  0.00   -0.0022459    0.0008955   -0.0005655
82
 Energy =   -1981.7456212420
Eu    9.1438328   10.6555947    7.8926935  0.00   -0.0344925    0.0232823    0.0248874
 N    8.7732226   12.9570876    7.2307713  0.00   -0.0227932   -0.0108432   -0.0193722
 N    8.5173358   11.3761648    5.6453696  0.00    0.0261206    0.0206999    0.0095288
 N   10.2422921   10.8058898   10.0443613  0.00    0.0416816    0.0131249   -0.0428248
 N   11.5324424   10.6381007    8.2109996  0.00   -0.0092836   -0.0237147    0.0104243
 N    7.0855855    9.6488618    8.6767300  0.00    0.0398989   -0.0274775    0.0143744
 N    8.6764160    8.2872829    7.8585430  0.00   -0.0250763    0.0094654   -0.0096287
 C    8.8633883   14.3076825    7.7298214  0.00   -0.0010344    0.0375355    0.0099121
 H    9.0206088   15.0232593    6.8995057  0.00    0.0023217    0.0109552   -0.0050335
 C    7.5796813   14.7268348    8.4501766  0.00   -0.0024134    0.0059327   -0.0001003
 H    6.7014299   14.6271687    7.7883463  0.00    0.0012151    0.0009232   -0.0015831
 H    7.6358293   15.7756626    8.7939425  0.00   -0.0013477    0.0015307    0.0004715
 H    7.4079479   14.0862972    9.3337311  0.00    0.0004139   -0.0007962   -0.0020618
 C   10.0702456   14.4365712    8.6579657  0.00   -0.0023554    0.0031430   -0.0024591
 H    9.9850821   13.7287549    9.5022474  0.00   -0.0022171    0.0005397    0.0003572
 H   10.1533930   15.4597959    9.0664475  0.00    0.0006710   -0.0001692   -0.0004315
 H   11.0028787   14.1986477    8.1183827  0.00    0.0001659   -0.0000779   -0.0000351
 C    8.1447673   10.8336130    4.3611003  0.00   -0.0010415   -0.0000096   -0.0151587
 H    7.5605632   11.5703765    3.7759460  0.00   -0.0036609   -0.0006959   -0.0011765
 C    7.2420568    9.6174412    4.5567493  0.00   -0.0018177   -0.0025574    0.0035458
 C    9.3780841   10.4763160    3.5293587  0.00   -0.0042777   -0.0009776   -0.0022296
 H   10.0218906   11.3610607    3.3805733  0.00   -0.0003700    0.0012853    0.0005877
 H    9.0933519   10.0846598    2.5357372  0.00    0.0007139    0.0009166    0.0015612
 H    9.9792149    9.7043658    4.0424478  0.00    0.0007723   -0.0002039    0.0011205
 C    8.4882971   12.6681091    5.9613875  0.00    0.0048516    0.0166681    0.0123862
 C    9.8577549   10.7288842   11.4389460  0.00   -0.0039987    0.0022193    0.0227913
 C   10.1644058    9.3823998   12.1021548  0.00   -0.0001877   -0.0075802    0.0051455
 H   11.2452201    9.2079917   12.2386865  0.00    0.0029286    0.0010261    0.0018657
 C   12.7753272   10.6290603    7.4791282  0.00    0.0257193   -0.0035301   -0.0182503
 H   13.5739163   10.1256718    8.0598035  0.00    0.0120641   -0.0039521    0.0029916
 C   13.2519471   12.0520275    7.1697318  0.00    0.0014551   -0.0035893    0.0011046
 H   12.4981752   12.5770066    6.5557802  0.00   -0.0016178    0.0000079    0.0004561
 H   14.2084541   12.0453128    6.6157247  0.00   -0.0019746   -0.0001474    0.0029715
 H   13.3941882   12.6378776    8.0945089  0.00    0.0011962    0.0008112    0.0014714
 C   12.5983647    9.8370925    6.1866251  0.00    0.0053971   -0.0019386   -0.0015988
 H   12.2894563    8.7991635    6.4024882  0.00   -0.0008734   -0.0007433    0.0000516
 H   13.5364227    9.8055500    5.6046398  0.00   -0.0012775   -0.0020766    0.0008937
 H   11.8204136   10.3018831    5.5534574  0.00   -0.0009499   -0.0007666    0.0019343
 C   11.4693158   10.6802192    9.5428193  0.00   -0.0393776    0.0000136    0.0026059
 C    5.7681781    9.9702023    9.1696745  0.00   -0.0169632   -0.0010096    0.0113387
 C    4.7807986   10.1856060    8.0185478  0.00   -0.0000020    0.0006660   -0.0013487
 C    5.8376693   11.2117538   10.0533384  0.00   -0.0021204    0.0014208    0.0011361
 C    9.4251357    7.0739903    7.6134440  0.00    0.0211594   -0.0357956   -0.0105889
 C    8.8384749    6.1677563    6.5251368  0.00   -0.0027113   -0.0082948   -0.0058274
 C    7.4841231    8.3990114    8.4386461  0.00    0.0095611   -0.0001439   -0.0076334
 H    4.7084542    9.2870764    7.3809015  0.00   -0.0006433    0.0004706   -0.0005468
 H    5.1209133   11.0204144    7.3796944  0.00   -0.0001456    0.0008330    0.0002367
 H    3.7686665   10.4230821    8.3934760  0.00   -0.0015419    0.0003637    0.0000988
 H    6.5125355   11.0441831   10.9106390  0.00   -0.0005751    0.0005288   -0.0004643
 H    4.8410892   11.4809515   10.4454422  0.00   -0.0021392    0.0011302    0.0002241
 H    6.2226360   12.0732341    9.4780909  0.00   -0.0004611   -0.0005315   -0.0004811
 C    9.7989406    6.2957452    8.8802136  0.00   -0.0017054   -0.0033380    0.0005670
 H    8.6280537    6.7508325    5.6122504  0.00    0.0011854   -0.0013109    0.0030039
 H    7.8987036    5.6778946    6.8328072  0.00    0.0000004   -0.0005273   -0.0020549
 H    9.5562301    5.3703327    6.2626660  0.00    0.0012054   -0.0041284   -0.0021060
 H   10.5199000    5.4931155    8.6425659  0.00    0.0002428   -0.0004087    0.0013521
 H    8.9267701    5.8244366    9.3649222  0.00    0.0002435   -0.0009294    0.0018314
 H   10.2694450    6.9711404    9.6157957  0.00   -0.0012648    0.0001775   -0.0007949
 C   10.3093307   11.9218074   12.2907812  0.00   -0.0020570   -0.0030184    0.0043979
 H    9.7651815    8.5582506   11.4856512  0.00    0.0016520    0.0012246    0.0018264
 H    9.6904427    9.3242838   13.0985437  0.00    0.0002224    0.0006229   -0.0004305
 H   10.0393971   12.8693958   11.7943253  0.00   -0.0012812    0.0010801   -0.0018810
 H   11.3974055   11.9371048   12.4729981  0.00    0.0012876    0.0006267   -0.0008344
 H    9.8108183   11.8978573   13.2764454  0.00    0.0007565    0.0001454   -0.0032918
 H    8.7541727   10.7942486   11.4171782  0.00    0.0002924   -0.0007350    0.0044458
 H    7.7570237    8.8475763    5.1586406  0.00    0.0006107   -0.0014756   -0.0011046
 H    6.9539876    9.1724239    3.5872259  0.00    0.0003720   -0.0000367   -0.0002700
 H    6.3229050    9.9011532    5.0976438  0.00   -0.0006194   -0.0005688   -0.0000970
 H    5.3721353    9.1491236    9.8008955  0.00   -0.0045417    0.0011232    0.0010635
 H   10.3894282    7.4293477    7.2010505  0.00   -0.0054132   -0.0092406    0.0024416
 C    6.6106597    7.2244975    8.8332722  0.00    0.0068865    0.0044216   -0.0048996
 H    7.0449891    6.2617670    8.5436979  0.00   -0.0019156    0.0014043   -0.0002479
 H    5.6179825    7.3065793    8.3597312  0.00   -0.0005620    0.0013439   -0.0003367
 H    6.4524581    7.2170933    9.9258797  0.00    0.0002986    0.0003574   -0.0000500
 C    8.1824252   13.7675693    4.9640462  0.00    0.0015357   -0.0019187    0.0028423
 H    7.8579836   13.3798785    3.9892996  0.00    0.0010566   -0.0024397   -0.0005129
 H    9.0834135   14.3832760    4.7956205  0.00   -0.0006252   -0.0023575    0.0001825
 H    7.3958014   14.4376072    5.3483217  0.00   -0.0004092   -0.0004684   -0.0013264
 C   12.7312199   10.5654735   10.3736450  0.00   -0.0017455   -0.0008847   -0.0067833
 H   13.2069267    9.5830297   10.2060026  0.00   -0.0011375    0.0010282    0.0008134
 H   12.5435895   10.6761609   11.4467957  0.00   -0.0025736    0.0009961   -0.0004296
 H   13.4604143   11.3359588   10.0727659  0.00   -0.0004047    0.0016432   -0.0000830
82
 Energy =   -1981.7456694010
Eu    9.1415580   10.6570901    7.8941614  0.00   -0.0225964    0.0176345    0.0180493
 N    8.7718726   12.9582947    7.2305733  0.00   -0.0122571   -0.0075038    0.0082067
 N    8.5188190   11.3771445    5.6448451  0.00    0.0203323    0.0081278    0.0127692
 N   10.2432078   10.8069801   10.0437014  0.00   -0.0128027    0.0114046   -0.0024854
 N   11.5331777   10.6365051    8.2106404  0.00   -0.0244763   -0.0185692    0.0020932
 N    7.0866654    9.6478668    8.6784401  0.00    0.0203138    0.0000483    0.0139781
 N    8.6760602    8.2860749    7.8574369  0.00   -0.0046790    0.0175376   -0.0164029
 C    8.8631969   14.3092458    7.7298691  0.00   -0.0019104    0.0168294    0.0074604
 H    9.0207440   15.0237867    6.8992850  0.00    0.0022142    0.0169509   -0.0073265
 C    7.5796090   14.7271114    8.4501493  0.00   -0.0045618    0.0086441    0.0022712
 H    6.7014882   14.6272122    7.7882160  0.00    0.0010864    0.0015663   -0.0016241
 H    7.6357438   15.7757422    8.7939479  0.00   -0.0032661    0.0043741    0.0024171
 H    7.4079343   14.0862349    9.3336352  0.00    0.0016416    0.0005444   -0.0039616
 C   10.0701166   14.4366841    8.6578522  0.00   -0.0000847    0.0042699   -0.0003004
 H    9.9849580   13.7287976    9.5022916  0.00   -0.0031460    0.0019781   -0.0023742
 H   10.1534221   15.4598060    9.0664217  0.00    0.0018913    0.0006401    0.0005664
 H   11.0029020   14.1986449    8.1183703  0.00   -0.0018423    0.0002690    0.0000960
 C    8.1445242   10.8335666    4.3605945  0.00    0.0085224    0.0055514   -0.0001220
 H    7.5603752   11.5703203    3.7759053  0.00   -0.0057970    0.0012964   -0.0038563
 C    7.2419735    9.6172970    4.5568817  0.00    0.0003914    0.0002783    0.0020590
 C    9.3779617   10.4762834    3.5293452  0.00   -0.0017243   -0.0007140   -0.0038925
 H   10.0218777   11.3611126    3.3805989  0.00   -0.0020187   -0.0003176    0.0008743
 H    9.0933800   10.0846814    2.5357826  0.00    0.0008131   -0.0001089   -0.0005351
 H    9.9792576    9.7043586    4.0424985  0.00   -0.0008920    0.0010810    0.0007494
 C    8.4886709   12.6687454    5.9621482  0.00   -0.0048082    0.0141509   -0.0219648
 C    9.8575837   10.7286184   11.4401161  0.00    0.0085420    0.0092264   -0.0116485
 C   10.1645018    9.3821591   12.1023956  0.00    0.0008278   -0.0049805    0.0034787
 H   11.2453231    9.2080818   12.2388028  0.00    0.0032765    0.0004503    0.0023041
 C   12.7765711   10.6286319    7.4785688  0.00    0.0060758   -0.0013453   -0.0047207
 H   13.5744508   10.1255445    8.0599107  0.00    0.0174020   -0.0057123    0.0022695
 C   13.2519369   12.0519399    7.1698322  0.00    0.0024151   -0.0019486   -0.0005571
 H   12.4981040   12.5770196    6.5558158  0.00   -0.0006747   -0.0020457    0.0015844
 H   14.2083584   12.0452958    6.6159032  0.00   -0.0000409    0.0013731    0.0015335
 H   13.3942637   12.6379107    8.0945617  0.00    0.0007765   -0.0005430    0.0014956
 C   12.5985477    9.8369951    6.1866026  0.00    0.0053175   -0.0035573   -0.0059547
 H   12.2894223    8.7991570    6.4024990  0.00   -0.0003670   -0.0007507    0.0004662
 H   13.5363576    9.8054325    5.6047190  0.00    0.0020298   -0.0032398   -0.0030843
 H   11.8203638   10.3018111    5.5535555  0.00    0.0006169   -0.0007490    0.0038701
 C   11.4680404   10.6801032    9.5421353  0.00    0.0271782   -0.0053040   -0.0002809
 C    5.7675485    9.9701221    9.1701184  0.00    0.0058749   -0.0042574    0.0022966
 C    4.7807477   10.1856331    8.0184863  0.00    0.0016311   -0.0004808    0.0002867
 C    5.8375192   11.2118130   10.0533918  0.00   -0.0015493    0.0006620    0.0016136
 C    9.4256071    7.0724215    7.6129015  0.00    0.0069543   -0.0163288   -0.0025975
 C    8.8384773    6.1673085    6.5249561  0.00   -0.0005728   -0.0121461   -0.0079986
 C    7.4851498    8.3989632    8.4378413  0.00   -0.0119853   -0.0254231    0.0077192
 H    4.7084224    9.2871022    7.3808744  0.00   -0.0007518    0.0003727   -0.0006745
 H    5.1209160   11.0204680    7.3796955  0.00   -0.0000197    0.0008783    0.0004597
 H    3.7685678   10.4230969    8.3934718  0.00   -0.0006137    0.0002690   -0.0006987
 H    6.5125172   11.0442191   10.9106306  0.00   -0.0014488    0.0006468   -0.0006722
 H    4.8409662   11.4810152   10.4454459  0.00   -0.0023524    0.0020997    0.0007673
 H    6.2226195   12.0732231    9.4780411  0.00   -0.0011046   -0.0011413   -0.0004202
 C    9.7988618    6.2956030    8.8802126  0.00    0.0011583   -0.0067609    0.0023363
 H    8.6281179    6.7507755    5.6124123  0.00    0.0014501   -0.0009979    0.0018387
 H    7.8987031    5.6778683    6.8327047  0.00   -0.0016941   -0.0022442   -0.0014805
 H    9.5562683    5.3701242    6.2625655  0.00    0.0013425   -0.0074517   -0.0045073
 H   10.5199306    5.4930847    8.6426779  0.00    0.0007289   -0.0016869    0.0028375
 H    8.9267737    5.8243819    9.3650522  0.00   -0.0003241   -0.0014191    0.0016905
 H   10.2693946    6.9711641    9.6158135  0.00   -0.0022518   -0.0002139   -0.0033884
 C   10.3092950   11.9217575   12.2908644  0.00   -0.0003648    0.0000937    0.0041261
 H    9.7652490    8.5582967   11.4857401  0.00    0.0011584   -0.0002821    0.0012385
 H    9.6904254    9.3243484   13.0985359  0.00   -0.0004986   -0.0010679    0.0025435
 H   10.0393198   12.8694794   11.7942498  0.00   -0.0009467   -0.0024296   -0.0008717
 H   11.3974447   11.9371543   12.4729537  0.00    0.0001059    0.0002825   -0.0008164
 H    9.8108181   11.8978519   13.2762568  0.00   -0.0004069    0.0012744    0.0014038
 H    8.7542257   10.7942612   11.4173352  0.00   -0.0015150   -0.0015821    0.0041389
 H    7.7570767    8.8474640    5.1585892  0.00    0.0009611   -0.0016242   -0.0003488
 H    6.9540227    9.1724023    3.5872330  0.00   -0.0000210   -0.0001236    0.0004516
 H    6.3228897    9.9011199    5.0976358  0.00   -0.0020490   -0.0006474    0.0008309
 H    5.3719208    9.1491981    9.8009344  0.00   -0.0086720   -0.0027474    0.0051421
 H   10.3891877    7.4289076    7.2012016  0.00    0.0014134   -0.0097912   -0.0012345
 C    6.6109157    7.2247334    8.8330830  0.00    0.0047278    0.0027607   -0.0038003
 H    7.0449072    6.2618711    8.5436864  0.00   -0.0018544   -0.0002530   -0.0007701
 H    5.6179644    7.3066423    8.3597358  0.00    0.0020408    0.0018999   -0.0002231
 H    6.4524559    7.2170812    9.9259001  0.00    0.0022071    0.0018923   -0.0039503
 C    8.1824459   13.7674187    4.9641574  0.00    0.0011187    0.0033325    0.0011250
 H    7.8580543   13.3797310    3.9892732  0.00    0.0018496   -0.0028545    0.0017581
 H    9.0834085   14.3831346    4.7956270  0.00   -0.0007520   -0.0017002   -0.0003646
 H    7.3957782   14.4375657    5.3482326  0.00   -0.0001924   -0.0002435   -0.0017592
 C   12.7311167   10.5655118   10.3733936  0.00   -0.0120371   -0.0002854   -0.0050619
 H   13.2068389    9.5830743   10.2060480  0.00   -0.0011662    0.0006192    0.0000778
 H   12.5434730   10.6762254   11.4468106  0.00   -0.0017975    0.0008115   -0.0044232
 H   13.4603451   11.3360566   10.0727583  0.00   -0.0013912    0.0017537   -0.0009716
82
 Energy =   -1981.7457189430
Eu    9.1376843   10.6597935    7.8968280  0.00   -0.0058744    0.0089257    0.0122873
 N    8.7696804   12.9596632    7.2311228  0.00   -0.0063426    0.0053190    0.0007352
 N    8.5216224   11.3786118    5.6447420  0.00    0.0036433   -0.0030051   -0.0053567
 N   10.2429755   10.8089339   10.0433793  0.00    0.0053855    0.0016135    0.0004125
 N   11.5328567   10.6336190    8.2101077  0.00   -0.0050624   -0.0081479   -0.0066730
 N    7.0886865    9.6469791    8.6813676  0.00   -0.0084279   -0.0023481    0.0092624
 N    8.6757196    8.2853305    7.8551131  0.00   -0.0024713    0.0014678   -0.0084183
 C    8.8628347   14.3117521    7.7302115  0.00   -0.0031135   -0.0104370   -0.0053798
 H    9.0210181   15.0253388    6.8986213  0.00    0.0002681    0.0163671   -0.0019572
 C    7.5792708   14.7279077    8.4502433  0.00   -0.0035816    0.0098205    0.0032210
 H    6.7016079   14.6273469    7.7879593  0.00   -0.0002985    0.0029679   -0.0019764
 H    7.6354465   15.7760881    8.7940833  0.00   -0.0065446    0.0110278    0.0062528
 H    7.4080024   14.0861968    9.3332943  0.00    0.0021870    0.0021892   -0.0045002
 C   10.0699707   14.4370442    8.6577168  0.00    0.0011100    0.0051727    0.0027909
 H    9.9846317   13.7289696    9.5021994  0.00   -0.0040668    0.0033353   -0.0048493
 H   10.1535576   15.4598643    9.0664217  0.00    0.0041512    0.0040490    0.0030200
 H   11.0028154   14.1986607    8.1183569  0.00   -0.0035866    0.0007331   -0.0006207
 C    8.1447288   10.8338299    4.3601561  0.00    0.0111738    0.0081025    0.0180000
 H    7.5598347   11.5703233    3.7756359  0.00   -0.0031436    0.0006451   -0.0016166
 C    7.2419190    9.6171515    4.5571285  0.00    0.0057782    0.0066759    0.0010687
 C    9.3777682   10.4762035    3.5291325  0.00    0.0040852    0.0006297   -0.0011804
 H   10.0217484   11.3611337    3.3806783  0.00   -0.0026215   -0.0017464    0.0000904
 H    9.0934613   10.0846775    2.5357892  0.00   -0.0003019   -0.0019638   -0.0048848
 H    9.9792538    9.7044102    4.0425987  0.00   -0.0030796    0.0029575   -0.0006524
 C    8.4888068   12.6701778    5.9616461  0.00   -0.0003844   -0.0002652    0.0002370
 C    9.8579297   10.7287839   11.4406226  0.00    0.0021646    0.0066018   -0.0217687
 C   10.1646823    9.3816685   12.1028519  0.00    0.0036149    0.0070104   -0.0034130
 H   11.2456085    9.2082250   12.2390757  0.00    0.0029863   -0.0014782    0.0032801
 C   12.7781953   10.6280309    7.4778374  0.00   -0.0216083   -0.0081434    0.0134983
 H   13.5760240   10.1250984    8.0601507  0.00    0.0128522   -0.0027228   -0.0035296
 C   13.2520433   12.0517667    7.1699202  0.00   -0.0015509    0.0002001    0.0018476
 H   12.4979929   12.5769145    6.5559540  0.00    0.0009277   -0.0042171    0.0027894
 H   14.2082588   12.0453609    6.6161929  0.00    0.0038696    0.0025152   -0.0012785
 H   13.3943904   12.6379142    8.0947016  0.00    0.0001899   -0.0025953    0.0002116
 C   12.5990290    9.8366808    6.1862473  0.00    0.0029618   -0.0034191   -0.0037332
 H   12.2893722    8.7991156    6.4025501  0.00    0.0008495   -0.0008605    0.0000404
 H   13.5364163    9.8051124    5.6046340  0.00    0.0080397   -0.0048150   -0.0096489
 H   11.8203521   10.3016789    5.5538955  0.00    0.0022326   -0.0006761    0.0043998
 C   11.4686080   10.6796311    9.5411493  0.00   -0.0070049   -0.0020618    0.0061496
 C    5.7673324    9.9697716    9.1706693  0.00    0.0210011   -0.0031646   -0.0009572
 C    4.7807773   10.1856245    8.0184415  0.00    0.0058508   -0.0024480    0.0023666
 C    5.8372545   11.2119096   10.0535403  0.00   -0.0014591   -0.0020492    0.0002513
 C    9.4263153    7.0699069    7.6121957  0.00   -0.0135888    0.0194119    0.0020525
 C    8.8384983    6.1661034    6.5243371  0.00    0.0026545   -0.0096100   -0.0031997
 C    7.4856632    8.3973653    8.4373468  0.00    0.0045376    0.0011398    0.0066444
 H    4.7083468    9.2871451    7.3808067  0.00   -0.0007161    0.0001547   -0.0011692
 H    5.1209209   11.0205737    7.3797183  0.00    0.0002397    0.0004541    0.0009648
 H    3.7684224   10.4231215    8.3934196  0.00    0.0023484   -0.0003767   -0.0010985
 H    6.5124110   11.0443008   10.9105853  0.00   -0.0014391    0.0009173    0.0006809
 H    4.8406895   11.4812091   10.4454895  0.00   -0.0021629    0.0025540    0.0008502
 H    6.2225349   12.0731477    9.4779527  0.00   -0.0017094   -0.0014032   -0.0003569
 C    9.7988572    6.2950604    8.8803542  0.00    0.0005123   -0.0051941    0.0021300
 H    8.6282795    6.7506544    5.6127024  0.00    0.0015834   -0.0013218   -0.0012779
 H    7.8986072    5.6777020    6.8325218  0.00   -0.0039408   -0.0058231   -0.0017106
 H    9.5563886    5.3694576    6.2622060  0.00    0.0024252   -0.0141885   -0.0087121
 H   10.5200173    5.4929508    8.6429926  0.00    0.0034320   -0.0063457    0.0042692
 H    8.9267590    5.8242398    9.3653118  0.00   -0.0011989   -0.0031536    0.0023302
 H   10.2692140    6.9711848    9.6156575  0.00   -0.0027787   -0.0005869   -0.0051725
 C   10.3092531   11.9217561   12.2911533  0.00    0.0029205    0.0040931    0.0000082
 H    9.7653813    8.5583294   11.4859120  0.00    0.0003849   -0.0031229   -0.0001063
 H    9.6903643    9.3243721   13.0986915  0.00   -0.0011170   -0.0021611    0.0052903
 H   10.0391727   12.8694368   11.7941251  0.00   -0.0003718   -0.0046838    0.0006474
 H   11.3974765   11.9372396   12.4728603  0.00   -0.0000580    0.0007682    0.0002741
 H    9.8107735   11.8979303   13.2761410  0.00   -0.0022088    0.0015811    0.0073859
 H    8.7541976   10.7942015   11.4177249  0.00    0.0035462   -0.0019940    0.0044687
 H    7.7572013    8.8472306    5.1585214  0.00    0.0007677   -0.0009868    0.0004204
 H    6.9540690    9.1723544    3.5872774  0.00    0.0001955    0.0009753    0.0020815
 H    6.3227594    9.9010357    5.0976777  0.00   -0.0021765   -0.0008073    0.0014397
 H    5.3711825    9.1491136    9.8012810  0.00   -0.0091182   -0.0037156    0.0063492
 H   10.3890417    7.4278742    7.2013014  0.00    0.0086405   -0.0116984   -0.0050640
 C    6.6114357    7.2251445    8.8326859  0.00   -0.0080569   -0.0149531    0.0025012
 H    7.0447208    6.2619721    8.5436374  0.00   -0.0015900   -0.0025049   -0.0015770
 H    5.6180756    7.3068162    8.3597396  0.00    0.0047927    0.0028594   -0.0003438
 H    6.4525829    7.2171735    9.9256967  0.00    0.0039191    0.0034981   -0.0073204
 C    8.1825149   13.7674399    4.9643236  0.00   -0.0037606    0.0114674   -0.0125054
 H    7.8582451   13.3793897    3.9893475  0.00    0.0028085   -0.0015428    0.0041119
 H    9.0833657   14.3828727    4.7956054  0.00    0.0017050    0.0016489   -0.0014115
 H    7.3957403   14.4374950    5.3480207  0.00   -0.0011392    0.0017230   -0.0012052
 C   12.7302774   10.5655703   10.3728671  0.00    0.0075821    0.0002512    0.0011286
 H   13.2066673    9.5831640   10.2061094  0.00   -0.0023127    0.0027377   -0.0002555
 H   12.5432458   10.6763559   11.4465771  0.00   -0.0041793    0.0009736   -0.0078127
 H   13.4601708   11.3362766   10.0726961  0.00   -0.0060907   -0.0025671   -0.0001281
82
 Energy =   -1981.7457521140
Eu    9.1351002   10.6617957    7.8989687  0.00    0.0026585    0.0034321    0.0053496
 N    8.7680564   12.9607401    7.2313087  0.00   -0.0023110    0.0035457    0.0022615
 N    8.5234365   11.3793908    5.6443706  0.00    0.0010499    0.0007659    0.0039668
 N   10.2434148   10.8101580   10.0430026  0.00   -0.0134655    0.0006623    0.0102838
 N   11.5326036   10.6315506    8.2095226  0.00   -0.0100907   -0.0041699    0.0058471
 N    7.0895494    9.6461894    8.6835087  0.00   -0.0045828   -0.0015966    0.0036952
 N    8.6753134    8.2848390    7.8534300  0.00    0.0004273    0.0050282   -0.0045579
 C    8.8624821   14.3128340    7.7301526  0.00   -0.0014758   -0.0033686   -0.0096386
 H    9.0211843   15.0269248    6.8981646  0.00   -0.0021063    0.0088396    0.0060570
 C    7.5789268   14.7287887    8.4504186  0.00   -0.0007711    0.0074901   -0.0007864
 H    6.7016589   14.6275511    7.7877125  0.00   -0.0007950    0.0045962   -0.0007718
 H    7.6349843   15.7767683    8.7944218  0.00   -0.0077337    0.0126656    0.0074258
 H    7.4081255   14.0862651    9.3329019  0.00    0.0015482    0.0030789   -0.0032647
 C   10.0699167   14.4374778    8.6577479  0.00   -0.0022587    0.0027501   -0.0014694