97
 Energy =   -2264.3157354490
Eu   -0.0218111    0.0063687    0.0408095  0.00    0.0149278   -0.0545090    0.0714305
 N   -0.7453075    2.2285931   -0.6042293  0.00    0.0016205    0.2082197    0.2391669
 N   -0.3190903    0.7392152   -2.2358495  0.00    0.0594566   -0.2754206   -0.2837016
 N   -1.0018181    2.9410553   -2.8654356  0.00    0.1541489   -0.3717873    0.2775458
 N    1.2511837    0.4561098    2.0390689  0.00   -0.2581511    0.0408708    0.3341283
 N    2.3923144   -0.0492076    0.1728647  0.00    0.0579114   -0.0425570   -0.1968456
 N    3.6378050    0.3878184    2.1555941  0.00   -0.3503560    0.1008746   -0.1923151
 N   -2.0649228   -0.9791104    0.8976575  0.00   -0.0143806    0.1870299    0.1576087
 N   -0.5716996   -2.3526745   -0.0712965  0.00    0.3111149   -0.2961220   -0.1891103
 N   -2.5779440   -3.3170414    0.7634832  0.00    0.4481960    0.5411861    0.0051682
 C   -0.5892554    3.5924583   -0.0778745  0.00    0.0977546   -1.9609927    1.5175604
 H   -0.7248257    4.2369031   -0.8169683  0.00   -0.3133672    1.6918281   -1.8670190
 C   -1.6279770    3.8494420    0.9925846  0.00    2.0141112   -0.4761814   -2.1853800
 H   -2.5145479    3.7239754    0.6206040  0.00   -2.9395483   -0.4165397   -1.1605594
 H   -1.5392224    4.7591507    1.3163811  0.00    0.2512677    2.9944414    1.1172078
 H   -1.4953328    3.2303112    1.7273314  0.00    0.4005903   -2.0213381    2.4181735
 C    0.7918054    3.7937831    0.4961265  0.00   -2.6156792   -0.4237659   -1.2137340
 H    0.9624873    3.1200394    1.1735764  0.00    0.5880479   -2.1893250    2.2157628
 H    0.8513002    4.6753293    0.8933798  0.00    0.2560304    2.9477832    1.3339061
 H    1.4511254    3.7134661   -0.2118179  0.00    2.1880608   -0.2617130   -2.2494831
 C   -0.6799607    0.1382873   -3.5215764  0.00    1.1401371   -1.3855154    1.6402092
 H   -1.1198325    0.8267223   -4.0815024  0.00   -1.1685226    1.7438137   -1.4446037
 C   -1.6474835   -1.0088085   -3.3120072  0.00    1.8438549    2.3119905   -0.3762054
 H   -1.2232170   -1.6966229   -2.7744753  0.00    1.3450660   -2.2489940    1.7671331
 H   -1.9010682   -1.3796787   -4.1708348  0.00   -0.8731775   -1.2677988   -2.8410660
 H   -2.4394478   -0.6840519   -2.8540846  0.00   -2.5816928    0.9990967    1.4844737
 C    0.5499247   -0.3614772   -4.2471401  0.00   -2.4140067    1.0307920    1.4134970
 H    1.1585278    0.3773682   -4.4003133  0.00    2.0604268    2.3754295   -0.5283747
 H    0.2895128   -0.7473085   -5.0983080  0.00   -0.8035307   -1.2837602   -2.8058526
 H    0.9917471   -1.0371775   -3.7086485  0.00    1.4760009   -2.1925025    1.7363964
 C   -0.6858127    1.9689828   -1.9089149  0.00   -0.1169907    0.2582207    0.0114032
 C   -2.1546528    3.7878184   -2.7445767  0.00    2.5789359   -1.7372721   -0.1593063
 H   -2.6598714    3.5348641   -1.9556899  0.00   -1.6523221   -0.8100033    2.5313852
 H   -2.7125389    3.6898531   -3.5322683  0.00   -1.9055687   -0.3133638   -2.6100283
 H   -1.8708331    4.7125473   -2.6634711  0.00    0.8026058    3.1198636    0.2803680
 C   -0.1581616    3.1587694   -4.0074564  0.00   -1.9469877   -0.5625295    2.3785120
 H    0.1354114    4.0833951   -4.0210440  0.00    1.0249552    3.0809789   -0.0772697
 H   -0.6555776    2.9658653   -4.8180880  0.00   -1.5337518   -0.6097684   -2.7933191
 H    0.6142962    2.5756936   -3.9547238  0.00    2.5261287   -1.8783085    0.1586636
 C    1.0434394    0.2546754    3.4798322  0.00   -1.8853442    0.4020584   -1.4889853
 H    1.9270842    0.1503472    3.9132034  0.00    2.2584276   -0.3144630    1.1519395
 C    0.2378205   -1.0027817    3.7196208  0.00    1.6130458    2.4582185   -0.4198051
 H   -0.6311944   -0.9156914    3.2986097  0.00   -2.8641246    0.2378381   -1.3942794
 H    0.1227321   -1.1357244    4.6740662  0.00   -0.3988712   -0.4836359    3.1283467
 H    0.7050014   -1.7634827    3.3407861  0.00    1.4836784   -2.5174034   -1.2248665
 C    0.3529089    1.4580292    4.0809663  0.00    1.3977952   -2.3699190   -1.1590768
 H    0.9068938    2.2446019    3.9548001  0.00    1.7476684    2.6016812   -0.3921599
 H    0.2114868    1.3091929    5.0292189  0.00   -0.4983869   -0.4294890    3.1196946
 H   -0.5024515    1.5921247    3.6426513  0.00   -2.7965485    0.4755768   -1.4141114
 C    3.5168647    0.2030047   -0.7282926  0.00   -2.1998998   -0.6588398   -0.8972830
 H    4.3137056    0.4339694   -0.1891100  0.00    2.0843562    0.6404238    1.3631914
 C    3.1901307    1.3635612   -1.6388228  0.00    0.6950583   -2.2273996    1.7666659
 H    2.3874378    1.1615860   -2.1450162  0.00   -2.6307010   -0.6260495   -1.6535931
 H    3.9284520    1.5131455   -2.2494154  0.00    2.4260861    0.5496612   -2.0447519
 H    3.0448072    2.1607189   -1.1054600  0.00   -0.4906780    2.6254205    1.6947202
 C    3.8143389   -1.0415193   -1.5295754  0.00   -0.5094097    2.4588246    1.5571219
 H    4.0532937   -1.7638179   -0.9290157  0.00    0.7770640   -2.4256848    1.9265635
 H    4.5516850   -0.8675527   -2.1359776  0.00    2.4127765    0.5101635   -2.0157539
 H    3.0292020   -1.2928798   -2.0409687  0.00   -2.5545409   -0.8579539   -1.6758284
 C    2.4293768    0.2668948    1.4653843  0.00    0.2361018   -0.0286719   -0.0247639
 C    3.8640805    1.4356992    3.1186893  0.00   -0.6157550   -2.4060845   -2.0326841
 H    3.1501423    2.0887666    3.0590856  0.00   -2.3106498    2.1429159   -0.1890872
 H    4.7126137    1.8663320    2.9330943  0.00    2.8344150    1.4747490   -0.6186941
 H    3.8816364    1.0560391    4.0101624  0.00    0.0997523   -1.1311951    3.0823230
 C    4.6726253   -0.6007397    2.0502534  0.00   -2.1998286    2.1599242    0.1559588
 H    5.4967753   -0.1766823    1.7657736  0.00    2.8282500    1.3082144   -0.9629695
 H    4.4131888   -1.2728954    1.4016357  0.00   -0.8230472   -2.2046899   -2.0887444
 H    4.8072202   -1.0203595    2.9158218  0.00    0.4822960   -1.4425031    2.8404067
 C   -3.4508603   -0.5676669    1.0859258  0.00    1.6527512    1.3945741   -1.0282787
 H   -3.9872893   -1.3500975    1.3666840  0.00   -1.4478798   -1.9911005    0.6749110
 C   -4.0028945   -0.0249609   -0.2099268  0.00    0.9657766   -1.1906443    2.4069136
 H   -3.5054785    0.7669934   -0.4657863  0.00    1.6403876    2.6094671   -0.8711019
 H   -4.9382316    0.2031407   -0.0919766  0.00   -3.0982407    0.7786650    0.3193501
 H   -3.9180412   -0.6987079   -0.9036816  0.00    0.2344735   -2.1421871   -2.2953055
 C   -3.5386396    0.4787522    2.1252227  0.00    0.1549649   -1.8668799   -1.6445289
 H   -3.2265354    0.1212600    2.9713379  0.00    1.0209460   -1.0779525    2.8170287
 H   -4.4603221    0.7686644    2.2155596  0.00   -2.9912100    0.9999820    0.3554436
 H   -2.9866054    1.2343680    1.8694496  0.00    1.7935702    2.4976833   -0.7845790
 C    0.1276088   -3.6492814   -0.1094130  0.00    1.0732450    2.1193220   -0.7933783
 H   -0.4741670   -4.3481105    0.2513506  0.00   -1.5277506   -1.8020517    0.9551436
 C    1.3623708   -3.5728248    0.7622721  0.00   -2.4419376   -0.2396472   -1.6846543
 H    1.9183063   -2.8338778    0.4710765  0.00    1.8536299    2.4414576   -0.9323497
 H    1.8617374   -4.4012878    0.6890055  0.00    1.6835231   -2.7209047   -0.1931946
 H    1.0980576   -3.4363249    1.6858335  0.00   -0.8089212    0.4612350    3.0147888
 C    0.4894545   -4.0088941   -1.5293142  0.00   -0.7572298    0.6754607    2.7731550
 H   -0.3161643   -4.0443343   -2.0694351  0.00   -2.5701376   -0.1222978   -1.8102039
 H    0.9264003   -4.8747355   -1.5430229  0.00    1.4574783   -2.8461578   -0.1060257
 H    1.0892797   -3.3376052   -1.8893336  0.00    1.9701442    2.1963058   -1.2374952
 C   -1.7420901   -2.2152471    0.5299599  0.00   -0.1637294   -0.1354731    0.0740398
 C   -2.9397898   -4.1862789   -0.3048666  0.00    0.8394459    1.6989289    2.2492694
 H   -3.8868308   -4.0926689   -0.4914683  0.00   -3.1998014    0.2602056   -0.7095638
 H   -2.7486260   -5.1032759   -0.0531474  0.00    0.6021364   -3.1256912    0.7078531
 H   -2.4296945   -3.9550148   -1.0968335  0.00    1.6162489    0.7221746   -2.5742925
 C   -3.2226341   -3.5238766    2.0219246  0.00    1.2699369    0.5226080   -2.7199239
 H   -2.9271105   -2.8484582    2.6520195  0.00    0.9562068    2.1664633    2.0708546
 H   -2.9944080   -4.4039104    2.3605291  0.00    0.7426300   -2.9359905    1.1873174
 H   -4.1833297   -3.4613275    1.9071876  0.00   -3.2721644    0.1830059   -0.2218550
97
 Energy =   -2264.4544106820
Eu   -0.0212211    0.0056208    0.0411720  0.00    0.0138658   -0.0548268    0.0709460
 N   -0.7455900    2.2283545   -0.6026747  0.00    0.0041976    0.1953422    0.2189713
 N   -0.3187329    0.7379021   -2.2362278  0.00    0.0533118   -0.2525006   -0.2670969
 N   -1.0020971    2.9397737   -2.8643863  0.00    0.1446972   -0.3406658    0.2507289
 N    1.2509343    0.4562530    2.0403443  0.00   -0.2323545    0.0342560    0.3118598
 N    2.3933195   -0.0496314    0.1722621  0.00    0.0520835   -0.0359571   -0.1842367
 N    3.6378208    0.3876855    2.1554695  0.00   -0.3174491    0.0958057   -0.1718463
 N   -2.0651792   -0.9785332    0.8978335  0.00   -0.0092571    0.1741885    0.1463140
 N   -0.5708919   -2.3538354   -0.0722993  0.00    0.2813776   -0.2824915   -0.1705555
 N   -2.5782376   -3.3165786    0.7635604  0.00    0.4116753    0.4999526    0.0047317
 C   -0.5909118    3.5920001   -0.0766930  0.00    0.0760923   -1.7955285    1.3552083
 H   -0.7277931    4.2415214   -0.8222551  0.00   -0.2794366    1.5337897   -1.6823495
 C   -1.6313371    3.8493737    0.9936236  0.00    1.8065434   -0.4211429   -1.9645961
 H   -2.5271968    3.7215310    0.6175788  0.00   -2.6318236   -0.3751447   -1.0315113
 H   -1.5427892    4.7690890    1.3205657  0.00    0.2161717    2.6781279    1.0035003
 H   -1.4974235    3.2243463    1.7368054  0.00    0.3534683   -1.8041923    2.1678489
 C    0.7915402    3.7953194    0.4970341  0.00   -2.3423587   -0.3765024   -1.0883273
 H    0.9651412    3.1150906    1.1820652  0.00    0.5339046   -1.9565999    1.9851602
 H    0.8513275    4.6867263    0.8980777  0.00    0.2347926    2.6363854    1.1915477
 H    1.4578750    3.7143049   -0.2183388  0.00    1.9631851   -0.2327372   -2.0089095
 C   -0.6790455    0.1380132   -3.5222922  0.00    1.0367033   -1.2362599    1.4992323
 H   -1.1227798    0.8326096   -4.0863696  0.00   -1.0598441    1.5720799   -1.3071599
 C   -1.6477325   -1.0098244   -3.3140499  0.00    1.6504536    2.0753468   -0.3417712
 H   -1.2195620   -1.7055863   -2.7712108  0.00    1.1973146   -2.0166146    1.5822592
 H   -1.9039930   -1.3840690   -4.1824825  0.00   -0.7845265   -1.1361751   -2.5391650
 H   -2.4482166   -0.6821474   -2.8512821  0.00   -2.3136661    0.8873751    1.3279386
 C    0.5523001   -0.3606974   -4.2487377  0.00   -2.1677874    0.9281515    1.2641396
 H    1.1675119    0.3861425   -4.4026604  0.00    1.8490761    2.1183086   -0.4735411
 H    0.2898643   -0.7499665   -5.1095421  0.00   -0.7102126   -1.1483956   -2.5136521
 H    0.9990738   -1.0439413   -3.7052420  0.00    1.3260862   -1.9631745    1.5488600
 C   -0.6858439    1.9681176   -1.9078096  0.00   -0.1118576    0.2418557    0.0145013
 C   -2.1559357    3.7867992   -2.7431178  0.00    2.3344814   -1.5589866   -0.1438574
 H   -2.6660928    3.5308075   -1.9458524  0.00   -1.4789941   -0.7246187    2.2623216
 H   -2.7204294    3.6872040   -3.5389289  0.00   -1.7103058   -0.2779565   -2.3328217
 H   -1.8706120    4.7220264   -2.6612645  0.00    0.7020109    2.7986076    0.2488988
 C   -0.1584915    3.1577154   -4.0077187  0.00   -1.7658839   -0.5105876    2.1407518
 H    0.1384168    4.0923568   -4.0216172  0.00    0.9201098    2.7566226   -0.0748425
 H   -0.6604938    2.9627158   -4.8276530  0.00   -1.3611498   -0.5407251   -2.5090320
 H    0.6224052    2.5688417   -3.9543901  0.00    2.2589904   -1.6746548    0.1403330
 C    1.0437345    0.2568701    3.4810983  0.00   -1.6889085    0.3720534   -1.3743717
 H    1.9348379    0.1518586    3.9181967  0.00    2.0363075   -0.2880104    1.0465017
 C    0.2374545   -1.0011343    3.7234119  0.00    1.4468773    2.2027934   -0.3755951
 H   -0.6410673   -0.9139215    3.2981380  0.00   -2.5632946    0.2045799   -1.2469033
 H    0.1214252   -1.1343266    4.6882571  0.00   -0.3588331   -0.4351345    2.7998302
 H    0.7090936   -1.7707113    3.3415385  0.00    1.3214547   -2.2584263   -1.0904653
 C    0.3530711    1.4621297    4.0812632  0.00    1.2581456   -2.1295404   -1.0324206
 H    0.9125735    2.2570549    3.9524330  0.00    1.5563318    2.3327642   -0.3517721
 H    0.2102307    1.3135245    5.0399433  0.00   -0.4491642   -0.3721971    2.7929450
 H   -0.5115385    1.5972114    3.6384796  0.00   -2.5040089    0.4287855   -1.2621297
 C    3.5184736    0.2022393   -0.7281937  0.00   -2.0010662   -0.6013190   -0.7857731
 H    4.3215792    0.4351863   -0.1836694  0.00    1.8842788    0.5823896    1.2272513
 C    3.1941028    1.3643336   -1.6397979  0.00    0.6258890   -1.9958527    1.5805815
 H    2.3835686    1.1611643   -2.1528301  0.00   -2.3528817   -0.5526207   -1.4845668
 H    3.9414120    1.5154321   -2.2557717  0.00    2.1708975    0.4969351   -1.8275860
 H    3.0467903    2.1700429   -1.1010562  0.00   -0.4409725    2.3523924    1.5102844
 C    3.8178518   -1.0433808   -1.5295881  0.00   -0.4529700    2.2056611    1.3969272
 H    4.0583032   -1.7736468   -0.9224559  0.00    0.6917066   -2.1751575    1.7167553
 H    4.5640157   -0.8679093   -2.1414049  0.00    2.1613617    0.4488905   -1.8032602
 H    3.0253129   -1.2976709   -2.0477462  0.00   -2.2806699   -0.7733396   -1.5048806
 C    2.4295443    0.2665814    1.4653651  0.00    0.2165602   -0.0267896   -0.0224976
 C    3.8639170    1.4361525    3.1190830  0.00   -0.5576417   -2.1821066   -1.8255677
 H    3.1423523    2.0960199    3.0584263  0.00   -2.0633039    1.9164877   -0.1690792
 H    4.7213860    1.8719303    2.9310246  0.00    2.5342220    1.3233135   -0.5512589
 H    3.8821128    1.0537916    4.0209824  0.00    0.0966805   -0.9947042    2.7644170
 C    4.6736051   -0.6014503    2.0497435  0.00   -1.9796225    1.9551356    0.1360913
 H    5.5071452   -0.1736061    1.7620113  0.00    2.5369538    1.1585304   -0.8601891
 H    4.4112256   -1.2806867    1.3943549  0.00   -0.7342553   -1.9726133   -1.8638127
 H    4.8098369   -1.0261434    2.9243569  0.00    0.4380236   -1.2968206    2.5406230
 C   -3.4512012   -0.5664995    1.0859683  0.00    1.5138901    1.2369913   -0.9427337
 H   -3.9920848   -1.3556965    1.3687955  0.00   -1.3159638   -1.7935839    0.6065189
 C   -4.0056735   -0.0246364   -0.2111442  0.00    0.8625205   -1.0678820    2.1575427
 H   -3.5038624    0.7760701   -0.4708210  0.00    1.4633288    2.3353372   -0.7873887
 H   -4.9511731    0.2053581   -0.0916316  0.00   -2.7729594    0.6974413    0.2797153
 H   -3.9201241   -0.7055656   -0.9121639  0.00    0.2051594   -1.9140140   -2.0578898
 C   -3.5391843    0.4803991    2.1291408  0.00    0.1388753   -1.6682185   -1.4610024
 H   -3.2233120    0.1184995    2.9838669  0.00    0.9141563   -0.9595683    2.5222623
 H   -4.4705817    0.7733186    2.2215396  0.00   -2.6754958    0.8990110    0.3267274
 H   -2.9816985    1.2447554    1.8718284  0.00    1.6024709    2.2395113   -0.6939992
 C    0.1273459   -3.6503051   -0.1118110  0.00    0.9474267    1.9418702   -0.7126783
 H   -0.4798730   -4.3548192    0.2517723  0.00   -1.3770826   -1.6316976    0.8642787
 C    1.3635686   -3.5765495    0.7600923  0.00   -2.1883287   -0.2179287   -1.5109380
 H    1.9264331   -2.8301027    0.4664876  0.00    1.6634611    2.1823742   -0.8278211
 H    1.8673694   -4.4143972    0.6852068  0.00    1.5076264   -2.4346111   -0.1699328
 H    1.0973338   -3.4391125    1.6937430  0.00   -0.7151264    0.4119643    2.7002959
 C    0.4883432   -4.0096276   -1.5334591  0.00   -0.6765950    0.6012872    2.4890024
 H   -0.3258348   -4.0441643   -2.0792500  0.00   -2.2952659   -0.1074556   -1.6268693
 H    0.9291323   -4.8851565   -1.5485823  0.00    1.3028749   -2.5464361   -0.1056236
 H    1.0951186   -3.3316180   -1.8973711  0.00    1.7636266    1.9609600   -1.1128329
 C   -1.7419498   -2.2152942    0.5297468  0.00   -0.1488544   -0.1261740    0.0646906
 C   -2.9411340   -4.1876255   -0.3054225  0.00    0.7573401    1.5227411    2.0348625
 H   -3.8985076   -4.0929033   -0.4945539  0.00   -2.8626455    0.2268180   -0.6409157
 H   -2.7484266   -5.1148846   -0.0514519  0.00    0.5322793   -2.8012263    0.6229897
 H   -2.4258621   -3.9545404   -1.1059630  0.00    1.4416261    0.6430605   -2.3042556
 C   -3.2234969   -3.5229270    2.0234053  0.00    1.1334359    0.4708585   -2.4603066
 H   -2.9241694   -2.8403992    2.6598356  0.00    0.8571078    1.9343702    1.8531641
 H   -2.9928021   -4.4123276    2.3662984  0.00    0.6602913   -2.6265620    1.0687047
 H   -4.1949446   -3.4596148    1.9090085  0.00   -2.9299054    0.1593618   -0.1816216
97
 Energy =   -2264.6879300790
Eu   -0.0199282    0.0038929    0.0420383  0.00    0.0121760   -0.0539191    0.0678009
 N   -0.7462253    2.2276072   -0.5994456  0.00    0.0090755    0.1703867    0.1793383
 N   -0.3179675    0.7352735   -2.2368583  0.00    0.0402498   -0.2047378   -0.2336220
 N   -1.0029552    2.9372387   -2.8622445  0.00    0.1247083   -0.2770340    0.1971962
 N    1.2505540    0.4564336    2.0430279  0.00   -0.1822388    0.0216088    0.2673410
 N    2.3953609   -0.0505321    0.1714044  0.00    0.0437997   -0.0229696   -0.1565669
 N    3.6381958    0.3875607    2.1555793  0.00   -0.2521929    0.0844554   -0.1301421
 N   -2.0655351   -0.9776166    0.8979228  0.00   -0.0028669    0.1458453    0.1240601
 N   -0.5694744   -2.3563387   -0.0744633  0.00    0.2241651   -0.2543121   -0.1350021
 N   -2.5791012   -3.3159526    0.7636943  0.00    0.3365124    0.4154437    0.0036474
 C   -0.5944451    3.5905401   -0.0741812  0.00    0.0378727   -1.4752739    1.0522146
 H   -0.7337089    4.2506909   -0.8327717  0.00   -0.2147490    1.2331490   -1.3306420
 C   -1.6385643    3.8491614    0.9957544  0.00    1.4306721   -0.3233180   -1.5623790
 H   -2.5530149    3.7164991    0.6118172  0.00   -2.0665282   -0.2976812   -0.7951184
 H   -1.5506843    4.7888601    1.3289389  0.00    0.1537879    2.0969325    0.7942797
 H   -1.5024562    3.2126903    1.7560808  0.00    0.2668460   -1.4056111    1.7073954
 C    0.7911369    3.7980860    0.4988442  0.00   -1.8472421   -0.2921302   -0.8596047
 H    0.9709542    3.1051173    1.1991335  0.00    0.4328755   -1.5286569    1.5601713
 H    0.8518029    4.7091899    0.9072850  0.00    0.1960507    2.0653859    0.9310606
 H    1.4715542    3.7156252   -0.2312779  0.00    1.5479974   -0.1801786   -1.5668214
 C   -0.6771396    0.1376027   -3.5234545  0.00    0.8401421   -0.9575040    1.2269909
 H   -1.1289538    0.8446348   -4.0960629  0.00   -0.8521712    1.2444785   -1.0460808
 C   -1.6485224   -1.0117092   -3.3180312  0.00    1.3000719    1.6440928   -0.2782191
 H   -1.2129298   -1.7236179   -2.7646611  0.00    0.9259034   -1.5883955    1.2423070
 H   -1.9103651   -1.3926460   -4.2055494  0.00   -0.6218947   -0.8951015   -1.9853250
 H   -2.4660439   -0.6783503   -2.8455441  0.00   -1.8192854    0.6831520    1.0395318
 C    0.5572293   -0.3589594   -4.2520613  0.00   -1.7213140    0.7400924    0.9941855
 H    1.1859403    0.4035156   -4.4074967  0.00    1.4607283    1.6468508   -0.3740038
 H    0.2909614   -0.7549798   -5.1322038  0.00   -0.5403334   -0.9001857   -1.9756029
 H    1.0140537   -1.0574234   -3.6989142  0.00    1.0494712   -1.5410486    1.2045054
 C   -0.6860123    1.9664118   -1.9054797  0.00   -0.1002928    0.2061109    0.0184344
 C   -2.1589536    3.7844389   -2.7402167  0.00    1.8855432   -1.2357324   -0.1143065
 H   -2.6789612    3.5221171   -1.9263774  0.00   -1.1610390   -0.5673250    1.7679033
 H   -2.7367507    3.6813634   -3.5521290  0.00   -1.3508581   -0.2128979   -1.8249215
 H   -1.8717145    4.7409763   -2.6569094  0.00    0.5196036    2.2071614    0.1914306
 C   -0.1598843    3.1561526   -4.0082831  0.00   -1.4321417   -0.4161873    1.7086376
 H    0.1434593    4.1108652   -4.0227696  0.00    0.7264124    2.1617752   -0.0695439
 H   -0.6705082    2.9571250   -4.8471691  0.00   -1.0463572   -0.4143688   -1.9851251
 H    0.6381335    2.5562372   -3.9539447  0.00    1.7699804   -1.3013044    0.1059859
 C    1.0441934    0.2615567    3.4835160  0.00   -1.3217512    0.3143876   -1.1501265
 H    1.9502579    0.1549738    3.9287074  0.00    1.6136743   -0.2373873    0.8461077
 C    0.2364518   -0.9976731    3.7313240  0.00    1.1445426    1.7389172   -0.2939492
 H   -0.6610518   -0.9106477    3.2975087  0.00   -2.0103492    0.1444305   -0.9768655
 H    0.1184062   -1.1312341    4.7169375  0.00   -0.2856084   -0.3464902    2.1950881
 H    0.7167867   -1.7852672    3.3438001  0.00    1.0243324   -1.7812190   -0.8444382
 C    0.3531515    1.4709442    4.0816211  0.00    1.0040099   -1.6921286   -0.8038446
 H    0.9233273    2.2827381    3.9473744  0.00    1.2051066    1.8379108   -0.2760139
 H    0.2072542    1.3233917    5.0611544  0.00   -0.3586945   -0.2695784    2.1915329
 H   -0.5299417    1.6080058    3.6299635  0.00   -1.9657406    0.3428805   -0.9832330
 C    3.5216636    0.2003943   -0.7275122  0.00   -1.6207340   -0.4921021   -0.5811559
 H    4.3376361    0.4376019   -0.1722951  0.00    1.5043356    0.4717111    0.9676983
 C    3.2025525    1.3657344   -1.6416431  0.00    0.4987618   -1.5760928    1.2432444
 H    2.3765241    1.1605604   -2.1686899  0.00   -1.8428248   -0.4186371   -1.1722354
 H    3.9679634    1.5198631   -2.2681197  0.00    1.7014071    0.3992716   -1.4299003
 H    3.0511861    2.1887116   -1.0925191  0.00   -0.3489791    1.8501790    1.1718360
 C    3.8251741   -1.0477172   -1.5290701  0.00   -0.3515327    1.7476482    1.1054906
 H    4.0683177   -1.7940710   -0.9089982  0.00    0.5361722   -1.7146959    1.3321538
 H    4.5891360   -0.8696085   -2.1515387  0.00    1.6979002    0.3370113   -1.4133211
 H    3.0181744   -1.3080578   -2.0610836  0.00   -1.7783698   -0.6170162   -1.1893104
 C    2.4301177    0.2659275    1.4656719  0.00    0.1790160   -0.0234550   -0.0204949
 C    3.8642082    1.4372519    3.1198835  0.00   -0.4519084   -1.7692055   -1.4502177
 H    3.1276408    2.1107883    3.0569533  0.00   -1.6095932    1.5019497   -0.1313952
 H    4.7394026    1.8833059    2.9265139  0.00    1.9845935    1.0448404   -0.4280112
 H    3.8841381    1.0506102    4.0430260  0.00    0.0903744   -0.7472376    2.1807144
 C    4.6759591   -0.6025781    2.0492039  0.00   -1.5799417    1.5783077    0.1016928
 H    5.5284821   -0.1677587    1.7548582  0.00    2.0017056    0.8860705   -0.6720156
 H    4.4076823   -1.2961421    1.3806531  0.00   -0.5710897   -1.5477186   -1.4511848
 H    4.8156923   -1.0374420    2.9418616  0.00    0.3561621   -1.0272079    1.9899186
 C   -3.4514887   -0.5639251    1.0855159  0.00    1.2465495    0.9454514   -0.7748941
 H   -4.0022300   -1.3664887    1.3723284  0.00   -1.0655714   -1.4172909    0.4771801
 C   -4.0108609   -0.0235004   -0.2143270  0.00    0.6761707   -0.8441907    1.7067918
 H   -3.5001819    0.7945187   -0.4818951  0.00    1.1398550    1.8310867   -0.6320815
 H   -4.9765865    0.2106223   -0.0919620  0.00   -2.1747820    0.5495459    0.2072229
 H   -3.9242838   -0.7186450   -0.9300099  0.00    0.1513782   -1.4944585   -1.6201038
 C   -3.5393856    0.4839862    2.1372081  0.00    0.1077110   -1.3118167   -1.1355421
 H   -3.2161145    0.1131069    3.0090692  0.00    0.7170928   -0.7431120    1.9799149
 H   -4.4899486    0.7835281    2.2341501  0.00   -2.0938995    0.7138656    0.2719568
 H   -2.9707314    1.2657251    1.8772981  0.00    1.2520868    1.7625355   -0.5290645
 C    0.1265399   -3.6521747   -0.1170633  0.00    0.7156654    1.5986345   -0.5624583
 H   -0.4915513   -4.3685853    0.2522005  0.00   -1.0893688   -1.3077083    0.6907536
 C    1.3659598   -3.5843598    0.7553318  0.00   -1.7278923   -0.1793474   -1.1949631
 H    1.9429270   -2.8230336    0.4573044  0.00    1.3133797    1.7072160   -0.6366537
 H    1.8785581   -4.4409539    0.6771144  0.00    1.1849063   -1.9077169   -0.1268851
 H    1.0962881   -3.4452515    1.7092536  0.00   -0.5440924    0.3216474    2.1213227
 C    0.4859589   -4.0108224   -1.5425258  0.00   -0.5317646    0.4667284    1.9735194
 H   -0.3450311   -4.0433687   -2.1000294  0.00   -1.7895203   -0.0816799   -1.2891633
 H    0.9343582   -4.9056780   -1.5609538  0.00    1.0198767   -1.9954210   -0.1028281
 H    1.1067251   -3.3195411   -1.9142337  0.00    1.3838832    1.5293378   -0.8829138
 C   -1.7418652   -2.2157430    0.5291479  0.00   -0.1213885   -0.1044745    0.0475658
 C   -2.9444499   -4.1909784   -0.3061444  0.00    0.6100513    1.2056027    1.6420924
 H   -3.9224611   -4.0942339   -0.5003316  0.00   -2.2447278    0.1660724   -0.5129899
 H   -2.7488277   -5.1388375   -0.0479940  0.00    0.4055453   -2.2047462    0.4695258
 H   -2.4192367   -3.9544953   -1.1240415  0.00    1.1204503    0.4978764   -1.8083655
 C   -3.2252528   -3.5214695    2.0263975  0.00    0.8890203    0.3780340   -1.9847617
 H   -2.9180766   -2.8249481    2.6754720  0.00    0.6743669    1.5083002    1.4540025
 H   -2.9894907   -4.4295080    2.3779263  0.00    0.5099003   -2.0590427    0.8494391
 H   -4.2182834   -3.4568892    1.9137100  0.00   -2.3017942    0.1162232   -0.1109602
97
 Energy =   -2264.8681399740
Eu   -0.0184476    0.0017670    0.0427229  0.00    0.0107894   -0.0529193    0.0641066
 N   -0.7467944    2.2265182   -0.5962309  0.00    0.0129066    0.1466546    0.1406732
 N   -0.3171028    0.7328279   -2.2376394  0.00    0.0274635   -0.1575702   -0.2010803
 N   -1.0040556    2.9349063   -2.8600328  0.00    0.1033108   -0.2120428    0.1438427
 N    1.2502938    0.4563985    2.0455164  0.00   -0.1326889    0.0099093    0.2243713
 N    2.3975072   -0.0515180    0.1708181  0.00    0.0385348   -0.0109684   -0.1296614
 N    3.6388592    0.3874916    2.1560666  0.00   -0.1874742    0.0718904   -0.0882093
 N   -2.0655986   -0.9771148    0.8976887  0.00    0.0002822    0.1187376    0.1023401
 N   -0.5682332   -2.3592546   -0.0768184  0.00    0.1688733   -0.2260836   -0.1010699
 N   -2.5801889   -3.3156376    0.7638417  0.00    0.2592703    0.3297884    0.0030999
 C   -0.5980580    3.5883882   -0.0715573  0.00    0.0065782   -1.1744015    0.7805939
 H   -0.7393863    4.2597368   -0.8430504  0.00   -0.1554774    0.9565063   -1.0068415
 C   -1.6460801    3.8486272    0.9979116  0.00    1.0998983   -0.2385816   -1.2064528
 H   -2.5791697    3.7111041    0.6063879  0.00   -1.5616607   -0.2266711   -0.5846903
 H   -1.5591702    4.8082433    1.3374048  0.00    0.1007925    1.5776479    0.6072738
 H   -1.5081616    3.2010360    1.7756387  0.00    0.1902224   -1.0506578    1.2949412
 C    0.7909427    3.8003181    0.5006406  0.00   -1.4122564   -0.2182332   -0.6572291
 H    0.9774022    3.0948179    1.2162288  0.00    0.3403411   -1.1470909    1.1792673
 H    0.8528635    4.7310776    0.9163658  0.00    0.1613155    1.5557228    0.6996973
 H    1.4855164    3.7163994   -0.2440923  0.00    1.1754293   -0.1334613   -1.1720095
 C   -0.6750369    0.1377931   -3.5247540  0.00    0.6595925   -0.7083858    0.9719721
 H   -1.1352192    0.8573626   -4.1059814  0.00   -0.6599366    0.9427609   -0.8061225
 C   -1.6494788   -1.0129912   -3.3227100  0.00    0.9919337    1.2626822   -0.2210575
 H   -1.2069909   -1.7414888   -2.7590437  0.00    0.6842687   -1.2044907    0.9384008
 H   -1.9171036   -1.4003434   -4.2293114  0.00   -0.4761665   -0.6802712   -1.4909998
 H   -2.4840777   -0.6742664   -2.8404746  0.00   -1.3760911    0.5019464    0.7813236
 C    0.5624293   -0.3564439   -4.2559340  0.00   -1.3280816    0.5723856    0.7570890
 H    1.2050405    0.4212644   -4.4127028  0.00    1.1130801    1.2265595   -0.2860266
 H    0.2926479   -0.7588816   -5.1556023  0.00   -0.3904708   -0.6789938   -1.4937190
 H    1.0294155   -1.0704187   -3.6936770  0.00    0.8010064   -1.1634096    0.8976365
 C   -0.6861994    1.9647866   -1.9031517  0.00   -0.0882794    0.1695093    0.0203138
 C   -2.1622953    3.7818842   -2.7371244  0.00    1.4828362   -0.9530118   -0.0864579
 H   -2.6920941    3.5128688   -1.9069104  0.00   -0.8775343   -0.4258928    1.3259693
 H   -2.7535914    3.6752052   -3.5649630  0.00   -1.0288049   -0.1540954   -1.3728905
 H   -1.8743978    4.7600839   -2.6523065  0.00    0.3613146    1.6770384    0.1403912
 C   -0.1621005    3.1554391   -4.0088448  0.00   -1.1307881   -0.3326422    1.3279903
 H    0.1474652    4.1302818   -4.0238100  0.00    0.5525150    1.6314125   -0.0637524
 H   -0.6807724    2.9527083   -4.8670940  0.00   -0.7688160   -0.3019453   -1.5150597
 H    0.6533368    2.5450746   -3.9538639  0.00    1.3336288   -0.9687127    0.0744216
 C    1.0443020    0.2665633    3.4854126  0.00   -0.9923811    0.2599321   -0.9364722
 H    1.9651159    0.1581566    3.9395862  0.00    1.2249512   -0.1901656    0.6616187
 C    0.2348036   -0.9938992    3.7390287  0.00    0.8782323    1.3302308   -0.2199204
 H   -0.6815455   -0.9075163    3.2964301  0.00   -1.5161608    0.0929126   -0.7362918
 H    0.1143324   -1.1276603    4.7453446  0.00   -0.2209325   -0.2681606    1.6540378
 H    0.7235866   -1.7998806    3.3464843  0.00    0.7605033   -1.3529295   -0.6260336
 C    0.3526507    1.4803919    4.0810635  0.00    0.7794226   -1.3052016   -0.6036025
 H    0.9330791    2.3092607    3.9413771  0.00    0.8924947    1.3948652   -0.2063533
 H    0.2032043    1.3346599    5.0814210  0.00   -0.2781632   -0.1816791    1.6533178
 H   -0.5488157    1.6194157    3.6203987  0.00   -1.4840292    0.2658720   -0.7348576
 C    3.5248165    0.1983955   -0.7263898  0.00   -1.2692595   -0.3915224   -0.4028065
 H    4.3539763    0.4402683   -0.1606988  0.00    1.1555788    0.3693622    0.7282930
 C    3.2111238    1.3670526   -1.6433348  0.00    0.3868253   -1.2065140    0.9463452