76
Energy = -1940.343445522
Eu    9.3703445   10.7408046    7.6068833 
N     8.5666599   13.0513912    7.1721339 
N     8.1286256   11.4414571    5.6084119 
N    10.1938690   11.3264532    9.8281502 
N    11.8177145   10.5765099    8.4011474 
N     7.4218927    9.5645630    8.4921243 
N     9.0169006    8.3666371    7.3633728 
C     8.2793685   14.3628950    7.7084023 
H     7.7695602   14.9691383    6.9278529 
C     7.3374277   14.2794579    8.9094486 
H     6.3934184   13.7805720    8.6289819 
H     7.0950042   15.2827759    9.3040129 
H     7.8039170   13.6920314    9.7207834 
C     9.5769939   15.0776791    8.0786145 
H    10.1332244   14.4883505    8.8301102 
H     9.3816791   16.0796147    8.5005171 
H    10.2244507   15.2052699    7.1922921 
C     7.6178970   11.0689099    4.3097469 
H     7.0719848   11.9344629    3.8734151 
C     6.6355574    9.9063654    4.4227616 
C     8.7707453   10.7256353    3.3663502 
H     9.4742338   11.5713770    3.2819994 
H     8.3990925   10.4744713    2.3566318 
H     9.3359781    9.8577578    3.7519464 
C     7.9818371   12.6671384    6.0459754 
C     9.7337039   11.5787615   11.1866558 
C     9.7506439   10.3347555   12.0776070 
H    10.7800949   10.0014641   12.3006508 
C    13.1077850    9.9257490    8.2349190 
H    13.2828798    9.2267259    9.0802611 
C    14.2428679   10.9511642    8.2415244 
H    14.1270811   11.6612694    7.4020258 
H    15.2277979   10.4606450    8.1415149 
H    14.2444758   11.5333377    9.1798813 
C    13.1162981    9.1107298    6.9470854 
H    12.3296539    8.3374403    6.9677935 
H    14.0890649    8.6099748    6.8001834 
H    12.9299004    9.7644737    6.0760573 
C    11.3861807   10.8090700    9.6306295 
C     6.1267865    9.5940488    9.1364417 
C     5.0540664   10.1133255    8.1782015 
C     6.1634772   10.4308887   10.4110957 
C     9.5808977    7.0822659    6.9818211 
C     8.6140924    6.2115204    6.1754408 
C     7.8899253    8.4137459    8.0556216 
H     4.9877415    9.4739939    7.2817880 
H     5.3015198   11.1367824    7.8434505 
H     4.0617478   10.1356187    8.6638841 
H     6.9073415   10.0356156   11.1226129 
H     5.1771273   10.4353592   10.9077922 
H     6.4322089   11.4766535   10.1771479 
C    10.1487953    6.3236817    8.1833775 
H     8.2159878    6.7707268    5.3112314 
H     7.7579182    5.8709311    6.7850340 
H     9.1262981    5.3094020    5.7970442 
H    10.6615462    5.3974545    7.8673568 
H     9.3458576    6.0428607    8.8891281 
H    10.8736426    6.9514640    8.7304345 
C    10.4893940   12.7413250   11.8316817 
H     9.2208538    9.4997778   11.5874871 
H     9.2542525   10.5394704   13.0426909 
H    10.4330466   13.6411255   11.1953428 
H    11.5572552   12.4930168   11.9740291 
H    10.0666199   12.9898645   12.8214734 
H     8.6796961   11.8894511   11.0905392 
H     7.1329270    9.0312331    4.8781170 
H     6.2507192    9.6128293    3.4296606 
H     5.7790661   10.1788218    5.0619155 
H     5.8436295    8.5570607    9.4228315 
H    10.4283153    7.3137236    6.3119070 
H    12.0323528   10.5228045   10.4898754 
H     7.3223387    7.4829757    8.2818218 
H     7.3683734   13.3979287    5.4659027 
O    11.0905030   12.0101881    6.2671340 
H    10.6078193   12.8448437    6.4411962 
H    11.6421222   11.7869020    7.0700426 
